+ 0.5 0 2 cbr 500 ------- 2 0.0 3.0 0 0
- 0.5 0 2 cbr 500 ------- 2 0.0 3.0 0 0
+ 0.5 1 2 cbr 500 ------- 0 1.0 3.0 0 1
- 0.5 1 2 cbr 500 ------- 0 1.0 3.0 0 1
+ 0.505 0 2 cbr 500 ------- 2 0.0 3.0 1 2
- 0.505 0 2 cbr 500 ------- 2 0.0 3.0 1 2
+ 0.505 1 2 cbr 500 ------- 0 1.0 3.0 1 3
- 0.505 1 2 cbr 500 ------- 0 1.0 3.0 1 3
+ 0.51 0 2 cbr 500 ------- 2 0.0 3.0 2 4
- 0.51 0 2 cbr 500 ------- 2 0.0 3.0 2 4
+ 0.51 1 2 cbr 500 ------- 0 1.0 3.0 2 5
- 0.51 1 2 cbr 500 ------- 0 1.0 3.0 2 5
r 0.514 0 2 cbr 500 ------- 2 0.0 3.0 0 0
+ 0.514 2 3 cbr 500 ------- 2 0.0 3.0 0 0
- 0.514 2 3 cbr 500 ------- 2 0.0 3.0 0 0
r 0.514 1 2 cbr 500 ------- 0 1.0 3.0 0 1
+ 0.514 2 3 cbr 500 ------- 0 1.0 3.0 0 1
+ 0.515 0 2 cbr 500 ------- 2 0.0 3.0 3 6
- 0.515 0 2 cbr 500 ------- 2 0.0 3.0 3 6
+ 0.515 1 2 cbr 500 ------- 0 1.0 3.0 3 7
- 0.515 1 2 cbr 500 ------- 0 1.0 3.0 3 7
- 0.518 2 3 cbr 500 ------- 0 1.0 3.0 0 1
r 0.519 0 2 cbr 500 ------- 2 0.0 3.0 1 2
+ 0.519 2 3 cbr 500 ------- 2 0.0 3.0 1 2
r 0.519 1 2 cbr 500 ------- 0 1.0 3.0 1 3
+ 0.519 2 3 cbr 500 ------- 0 1.0 3.0 1 3
+ 0.52 0 2 cbr 500 ------- 2 0.0 3.0 4 8
- 0.52 0 2 cbr 500 ------- 2 0.0 3.0 4 8
+ 0.52 1 2 cbr 500 ------- 0 1.0 3.0 4 9
- 0.52 1 2 cbr 500 ------- 0 1.0 3.0 4 9
- 0.522 2 3 cbr 500 ------- 2 0.0 3.0 1 2
r 0.524 0 2 cbr 500 ------- 2 0.0 3.0 2 4
+ 0.524 2 3 cbr 500 ------- 2 0.0 3.0 2 4
r 0.524 1 2 cbr 500 ------- 0 1.0 3.0 2 5
+ 0.524 2 3 cbr 500 ------- 0 1.0 3.0 2 5
+ 0.525 0 2 cbr 500 ------- 2 0.0 3.0 5 10
- 0.525 0 2 cbr 500 ------- 2 0.0 3.0 5 10
+ 0.525 1 2 cbr 500 ------- 0 1.0 3.0 5 11
- 0.525 1 2 cbr 500 ------- 0 1.0 3.0 5 11
- 0.526 2 3 cbr 500 ------- 0 1.0 3.0 1 3
r 0.528 2 3 cbr 500 ------- 2 0.0 3.0 0 0
r 0.529 0 2 cbr 500 ------- 2 0.0 3.0 3 6
+ 0.529 2 3 cbr 500 ------- 2 0.0 3.0 3 6
r 0.529 1 2 cbr 500 ------- 0 1.0 3.0 3 7
+ 0.529 2 3 cbr 500 ------- 0 1.0 3.0 3 7
+ 0.53 0 2 cbr 500 ------- 2 0.0 3.0 6 12
- 0.53 0 2 cbr 500 ------- 2 0.0 3.0 6 12
+ 0.53 1 2 cbr 500 ------- 0 1.0 3.0 6 13
- 0.53 1 2 cbr 500 ------- 0 1.0 3.0 6 13
- 0.53 2 3 cbr 500 ------- 2 0.0 3.0 2 4
r 0.532 2 3 cbr 500 ------- 0 1.0 3.0 0 1
r 0.534 0 2 cbr 500 ------- 2 0.0 3.0 4 8
+ 0.534 2 3 cbr 500 ------- 2 0.0 3.0 4 8
r 0.534 1 2 cbr 500 ------- 0 1.0 3.0 4 9
+ 0.534 2 3 cbr 500 ------- 0 1.0 3.0 4 9
- 0.534 2 3 cbr 500 ------- 0 1.0 3.0 2 5
+ 0.535 0 2 cbr 500 ------- 2 0.0 3.0 7 14
- 0.535 0 2 cbr 500 ------- 2 0.0 3.0 7 14
+ 0.535 1 2 cbr 500 ------- 0 1.0 3.0 7 15
- 0.535 1 2 cbr 500 ------- 0 1.0 3.0 7 15
r 0.536 2 3 cbr 500 ------- 2 0.0 3.0 1 2
- 0.538 2 3 cbr 500 ------- 2 0.0 3.0 3 6
r 0.539 0 2 cbr 500 ------- 2 0.0 3.0 5 10
+ 0.539 2 3 cbr 500 ------- 2 0.0 3.0 5 10
r 0.539 1 2 cbr 500 ------- 0 1.0 3.0 5 11
+ 0.539 2 3 cbr 500 ------- 0 1.0 3.0 5 11
r 0.54 2 3 cbr 500 ------- 0 1.0 3.0 1 3
+ 0.54 0 2 cbr 500 ------- 2 0.0 3.0 8 16
- 0.54 0 2 cbr 500 ------- 2 0.0 3.0 8 16
+ 0.54 1 2 cbr 500 ------- 0 1.0 3.0 8 17
- 0.54 1 2 cbr 500 ------- 0 1.0 3.0 8 17
- 0.542 2 3 cbr 500 ------- 0 1.0 3.0 3 7
r 0.544 0 2 cbr 500 ------- 2 0.0 3.0 6 12
+ 0.544 2 3 cbr 500 ------- 2 0.0 3.0 6 12
r 0.544 1 2 cbr 500 ------- 0 1.0 3.0 6 13
+ 0.544 2 3 cbr 500 ------- 0 1.0 3.0 6 13
r 0.544 2 3 cbr 500 ------- 2 0.0 3.0 2 4
+ 0.545 0 2 cbr 500 ------- 2 0.0 3.0 9 18
- 0.545 0 2 cbr 500 ------- 2 0.0 3.0 9 18
+ 0.545 1 2 cbr 500 ------- 0 1.0 3.0 9 19
- 0.545 1 2 cbr 500 ------- 0 1.0 3.0 9 19
- 0.546 2 3 cbr 500 ------- 2 0.0 3.0 4 8
r 0.548 2 3 cbr 500 ------- 0 1.0 3.0 2 5
r 0.549 0 2 cbr 500 ------- 2 0.0 3.0 7 14
+ 0.549 2 3 cbr 500 ------- 2 0.0 3.0 7 14
r 0.549 1 2 cbr 500 ------- 0 1.0 3.0 7 15
+ 0.549 2 3 cbr 500 ------- 0 1.0 3.0 7 15
+ 0.55 0 2 cbr 500 ------- 2 0.0 3.0 10 20
- 0.55 0 2 cbr 500 ------- 2 0.0 3.0 10 20
+ 0.55 1 2 cbr 500 ------- 0 1.0 3.0 10 21
- 0.55 1 2 cbr 500 ------- 0 1.0 3.0 10 21
- 0.55 2 3 cbr 500 ------- 0 1.0 3.0 4 9
r 0.552 2 3 cbr 500 ------- 2 0.0 3.0 3 6
r 0.554 0 2 cbr 500 ------- 2 0.0 3.0 8 16
+ 0.554 2 3 cbr 500 ------- 2 0.0 3.0 8 16
r 0.554 1 2 cbr 500 ------- 0 1.0 3.0 8 17
+ 0.554 2 3 cbr 500 ------- 0 1.0 3.0 8 17
- 0.554 2 3 cbr 500 ------- 2 0.0 3.0 5 10
+ 0.555 0 2 cbr 500 ------- 2 0.0 3.0 11 22
- 0.555 0 2 cbr 500 ------- 2 0.0 3.0 11 22
+ 0.555 1 2 cbr 500 ------- 0 1.0 3.0 11 23
- 0.555 1 2 cbr 500 ------- 0 1.0 3.0 11 23
r 0.556 2 3 cbr 500 ------- 0 1.0 3.0 3 7
- 0.558 2 3 cbr 500 ------- 0 1.0 3.0 5 11
r 0.559 0 2 cbr 500 ------- 2 0.0 3.0 9 18
+ 0.559 2 3 cbr 500 ------- 2 0.0 3.0 9 18
r 0.559 1 2 cbr 500 ------- 0 1.0 3.0 9 19
+ 0.559 2 3 cbr 500 ------- 0 1.0 3.0 9 19
r 0.56 2 3 cbr 500 ------- 2 0.0 3.0 4 8
+ 0.56 0 2 cbr 500 ------- 2 0.0 3.0 12 24
- 0.56 0 2 cbr 500 ------- 2 0.0 3.0 12 24
+ 0.56 1 2 cbr 500 ------- 0 1.0 3.0 12 25
- 0.56 1 2 cbr 500 ------- 0 1.0 3.0 12 25
- 0.562 2 3 cbr 500 ------- 2 0.0 3.0 6 12
r 0.564 0 2 cbr 500 ------- 2 0.0 3.0 10 20
+ 0.564 2 3 cbr 500 ------- 2 0.0 3.0 10 20
r 0.564 1 2 cbr 500 ------- 0 1.0 3.0 10 21
+ 0.564 2 3 cbr 500 ------- 0 1.0 3.0 10 21
r 0.564 2 3 cbr 500 ------- 0 1.0 3.0 4 9
+ 0.565 0 2 cbr 500 ------- 2 0.0 3.0 13 26
- 0.565 0 2 cbr 500 ------- 2 0.0 3.0 13 26
+ 0.565 1 2 cbr 500 ------- 0 1.0 3.0 13 27
- 0.565 1 2 cbr 500 ------- 0 1.0 3.0 13 27
- 0.566 2 3 cbr 500 ------- 0 1.0 3.0 6 13
r 0.568 2 3 cbr 500 ------- 2 0.0 3.0 5 10
r 0.569 0 2 cbr 500 ------- 2 0.0 3.0 11 22
+ 0.569 2 3 cbr 500 ------- 2 0.0 3.0 11 22
r 0.569 1 2 cbr 500 ------- 0 1.0 3.0 11 23
+ 0.569 2 3 cbr 500 ------- 0 1.0 3.0 11 23
+ 0.57 0 2 cbr 500 ------- 2 0.0 3.0 14 28
- 0.57 0 2 cbr 500 ------- 2 0.0 3.0 14 28
+ 0.57 1 2 cbr 500 ------- 0 1.0 3.0 14 29
- 0.57 1 2 cbr 500 ------- 0 1.0 3.0 14 29
- 0.57 2 3 cbr 500 ------- 2 0.0 3.0 7 14
r 0.572 2 3 cbr 500 ------- 0 1.0 3.0 5 11
r 0.574 0 2 cbr 500 ------- 2 0.0 3.0 12 24
+ 0.574 2 3 cbr 500 ------- 2 0.0 3.0 12 24
r 0.574 1 2 cbr 500 ------- 0 1.0 3.0 12 25
+ 0.574 2 3 cbr 500 ------- 0 1.0 3.0 12 25
- 0.574 2 3 cbr 500 ------- 0 1.0 3.0 7 15
+ 0.575 0 2 cbr 500 ------- 2 0.0 3.0 15 30
- 0.575 0 2 cbr 500 ------- 2 0.0 3.0 15 30
+ 0.575 1 2 cbr 500 ------- 0 1.0 3.0 15 31
- 0.575 1 2 cbr 500 ------- 0 1.0 3.0 15 31
r 0.576 2 3 cbr 500 ------- 2 0.0 3.0 6 12
- 0.578 2 3 cbr 500 ------- 2 0.0 3.0 8 16
r 0.579 0 2 cbr 500 ------- 2 0.0 3.0 13 26
+ 0.579 2 3 cbr 500 ------- 2 0.0 3.0 13 26
r 0.579 1 2 cbr 500 ------- 0 1.0 3.0 13 27
+ 0.579 2 3 cbr 500 ------- 0 1.0 3.0 13 27
r 0.58 2 3 cbr 500 ------- 0 1.0 3.0 6 13
+ 0.58 0 2 cbr 500 ------- 2 0.0 3.0 16 32
- 0.58 0 2 cbr 500 ------- 2 0.0 3.0 16 32
+ 0.58 1 2 cbr 500 ------- 0 1.0 3.0 16 33
- 0.58 1 2 cbr 500 ------- 0 1.0 3.0 16 33
- 0.582 2 3 cbr 500 ------- 0 1.0 3.0 8 17
r 0.584 0 2 cbr 500 ------- 2 0.0 3.0 14 28
+ 0.584 2 3 cbr 500 ------- 2 0.0 3.0 14 28
r 0.584 1 2 cbr 500 ------- 0 1.0 3.0 14 29
+ 0.584 2 3 cbr 500 ------- 0 1.0 3.0 14 29
r 0.584 2 3 cbr 500 ------- 2 0.0 3.0 7 14
+ 0.585 0 2 cbr 500 ------- 2 0.0 3.0 17 34
- 0.585 0 2 cbr 500 ------- 2 0.0 3.0 17 34
+ 0.585 1 2 cbr 500 ------- 0 1.0 3.0 17 35
- 0.585 1 2 cbr 500 ------- 0 1.0 3.0 17 35
- 0.586 2 3 cbr 500 ------- 2 0.0 3.0 9 18
r 0.588 2 3 cbr 500 ------- 0 1.0 3.0 7 15
r 0.589 0 2 cbr 500 ------- 2 0.0 3.0 15 30
+ 0.589 2 3 cbr 500 ------- 2 0.0 3.0 15 30
r 0.589 1 2 cbr 500 ------- 0 1.0 3.0 15 31
+ 0.589 2 3 cbr 500 ------- 0 1.0 3.0 15 31
+ 0.59 0 2 cbr 500 ------- 2 0.0 3.0 18 36
- 0.59 0 2 cbr 500 ------- 2 0.0 3.0 18 36
+ 0.59 1 2 cbr 500 ------- 0 1.0 3.0 18 37
- 0.59 1 2 cbr 500 ------- 0 1.0 3.0 18 37
- 0.59 2 3 cbr 500 ------- 0 1.0 3.0 9 19
r 0.592 2 3 cbr 500 ------- 2 0.0 3.0 8 16
r 0.594 0 2 cbr 500 ------- 2 0.0 3.0 16 32
+ 0.594 2 3 cbr 500 ------- 2 0.0 3.0 16 32
r 0.594 1 2 cbr 500 ------- 0 1.0 3.0 16 33
+ 0.594 2 3 cbr 500 ------- 0 1.0 3.0 16 33
- 0.594 2 3 cbr 500 ------- 2 0.0 3.0 10 20
+ 0.595 0 2 cbr 500 ------- 2 0.0 3.0 19 38
- 0.595 0 2 cbr 500 ------- 2 0.0 3.0 19 38
+ 0.595 1 2 cbr 500 ------- 0 1.0 3.0 19 39
- 0.595 1 2 cbr 500 ------- 0 1.0 3.0 19 39
r 0.596 2 3 cbr 500 ------- 0 1.0 3.0 8 17
- 0.598 2 3 cbr 500 ------- 0 1.0 3.0 10 21
r 0.599 0 2 cbr 500 ------- 2 0.0 3.0 17 34
+ 0.599 2 3 cbr 500 ------- 2 0.0 3.0 17 34
r 0.599 1 2 cbr 500 ------- 0 1.0 3.0 17 35
+ 0.599 2 3 cbr 500 ------- 0 1.0 3.0 17 35
r 0.6 2 3 cbr 500 ------- 2 0.0 3.0 9 18
+ 0.6 0 2 cbr 500 ------- 2 0.0 3.0 20 40
- 0.6 0 2 cbr 500 ------- 2 0.0 3.0 20 40
+ 0.6 1 2 cbr 500 ------- 0 1.0 3.0 20 41
- 0.6 1 2 cbr 500 ------- 0 1.0 3.0 20 41
- 0.602 2 3 cbr 500 ------- 2 0.0 3.0 11 22
r 0.604 0 2 cbr 500 ------- 2 0.0 3.0 18 36
+ 0.604 2 3 cbr 500 ------- 2 0.0 3.0 18 36
r 0.604 1 2 cbr 500 ------- 0 1.0 3.0 18 37
+ 0.604 2 3 cbr 500 ------- 0 1.0 3.0 18 37
r 0.604 2 3 cbr 500 ------- 0 1.0 3.0 9 19
+ 0.605 0 2 cbr 500 ------- 2 0.0 3.0 21 42
- 0.605 0 2 cbr 500 ------- 2 0.0 3.0 21 42
+ 0.605 1 2 cbr 500 ------- 0 1.0 3.0 21 43
- 0.605 1 2 cbr 500 ------- 0 1.0 3.0 21 43
- 0.606 2 3 cbr 500 ------- 0 1.0 3.0 11 23
r 0.608 2 3 cbr 500 ------- 2 0.0 3.0 10 20
r 0.609 0 2 cbr 500 ------- 2 0.0 3.0 19 38
+ 0.609 2 3 cbr 500 ------- 2 0.0 3.0 19 38
r 0.609 1 2 cbr 500 ------- 0 1.0 3.0 19 39
+ 0.609 2 3 cbr 500 ------- 0 1.0 3.0 19 39
+ 0.61 0 2 cbr 500 ------- 2 0.0 3.0 22 44
- 0.61 0 2 cbr 500 ------- 2 0.0 3.0 22 44
+ 0.61 1 2 cbr 500 ------- 0 1.0 3.0 22 45
- 0.61 1 2 cbr 500 ------- 0 1.0 3.0 22 45
- 0.61 2 3 cbr 500 ------- 2 0.0 3.0 12 24
r 0.612 2 3 cbr 500 ------- 0 1.0 3.0 10 21
r 0.614 0 2 cbr 500 ------- 2 0.0 3.0 20 40
+ 0.614 2 3 cbr 500 ------- 2 0.0 3.0 20 40
r 0.614 1 2 cbr 500 ------- 0 1.0 3.0 20 41
+ 0.614 2 3 cbr 500 ------- 0 1.0 3.0 20 41
- 0.614 2 3 cbr 500 ------- 0 1.0 3.0 12 25
+ 0.615 0 2 cbr 500 ------- 2 0.0 3.0 23 46
- 0.615 0 2 cbr 500 ------- 2 0.0 3.0 23 46
+ 0.615 1 2 cbr 500 ------- 0 1.0 3.0 23 47
- 0.615 1 2 cbr 500 ------- 0 1.0 3.0 23 47
r 0.616 2 3 cbr 500 ------- 2 0.0 3.0 11 22
- 0.618 2 3 cbr 500 ------- 2 0.0 3.0 13 26
r 0.619 0 2 cbr 500 ------- 2 0.0 3.0 21 42
+ 0.619 2 3 cbr 500 ------- 2 0.0 3.0 21 42
r 0.619 1 2 cbr 500 ------- 0 1.0 3.0 21 43
+ 0.619 2 3 cbr 500 ------- 0 1.0 3.0 21 43
r 0.62 2 3 cbr 500 ------- 0 1.0 3.0 11 23
+ 0.62 0 2 cbr 500 ------- 2 0.0 3.0 24 48
- 0.62 0 2 cbr 500 ------- 2 0.0 3.0 24 48
+ 0.62 1 2 cbr 500 ------- 0 1.0 3.0 24 49
- 0.62 1 2 cbr 500 ------- 0 1.0 3.0 24 49
- 0.622 2 3 cbr 500 ------- 0 1.0 3.0 13 27
r 0.624 0 2 cbr 500 ------- 2 0.0 3.0 22 44
+ 0.624 2 3 cbr 500 ------- 2 0.0 3.0 22 44
r 0.624 1 2 cbr 500 ------- 0 1.0 3.0 22 45
+ 0.624 2 3 cbr 500 ------- 0 1.0 3.0 22 45
r 0.624 2 3 cbr 500 ------- 2 0.0 3.0 12 24
+ 0.625 0 2 cbr 500 ------- 2 0.0 3.0 25 50
- 0.625 0 2 cbr 500 ------- 2 0.0 3.0 25 50
+ 0.625 1 2 cbr 500 ------- 0 1.0 3.0 25 51
- 0.625 1 2 cbr 500 ------- 0 1.0 3.0 25 51
- 0.626 2 3 cbr 500 ------- 2 0.0 3.0 14 28
r 0.628 2 3 cbr 500 ------- 0 1.0 3.0 12 25
r 0.629 0 2 cbr 500 ------- 2 0.0 3.0 23 46
+ 0.629 2 3 cbr 500 ------- 2 0.0 3.0 23 46
r 0.629 1 2 cbr 500 ------- 0 1.0 3.0 23 47
+ 0.629 2 3 cbr 500 ------- 0 1.0 3.0 23 47
+ 0.63 0 2 cbr 500 ------- 2 0.0 3.0 26 52
- 0.63 0 2 cbr 500 ------- 2 0.0 3.0 26 52
+ 0.63 1 2 cbr 500 ------- 0 1.0 3.0 26 53
- 0.63 1 2 cbr 500 ------- 0 1.0 3.0 26 53
- 0.63 2 3 cbr 500 ------- 0 1.0 3.0 14 29
r 0.632 2 3 cbr 500 ------- 2 0.0 3.0 13 26
r 0.634 0 2 cbr 500 ------- 2 0.0 3.0 24 48
+ 0.634 2 3 cbr 500 ------- 2 0.0 3.0 24 48
r 0.634 1 2 cbr 500 ------- 0 1.0 3.0 24 49
+ 0.634 2 3 cbr 500 ------- 0 1.0 3.0 24 49
- 0.634 2 3 cbr 500 ------- 2 0.0 3.0 15 30
+ 0.635 0 2 cbr 500 ------- 2 0.0 3.0 27 54
- 0.635 0 2 cbr 500 ------- 2 0.0 3.0 27 54
+ 0.635 1 2 cbr 500 ------- 0 1.0 3.0 27 55
- 0.635 1 2 cbr 500 ------- 0 1.0 3.0 27 55
r 0.636 2 3 cbr 500 ------- 0 1.0 3.0 13 27
- 0.638 2 3 cbr 500 ------- 0 1.0 3.0 15 31
r 0.639 0 2 cbr 500 ------- 2 0.0 3.0 25 50
+ 0.639 2 3 cbr 500 ------- 2 0.0 3.0 25 50
r 0.639 1 2 cbr 500 ------- 0 1.0 3.0 25 51
+ 0.639 2 3 cbr 500 ------- 0 1.0 3.0 25 51
r 0.64 2 3 cbr 500 ------- 2 0.0 3.0 14 28
+ 0.64 0 2 cbr 500 ------- 2 0.0 3.0 28 56
- 0.64 0 2 cbr 500 ------- 2 0.0 3.0 28 56
+ 0.64 1 2 cbr 500 ------- 0 1.0 3.0 28 57
- 0.64 1 2 cbr 500 ------- 0 1.0 3.0 28 57
- 0.642 2 3 cbr 500 ------- 2 0.0 3.0 16 32
r 0.644 0 2 cbr 500 ------- 2 0.0 3.0 26 52
+ 0.644 2 3 cbr 500 ------- 2 0.0 3.0 26 52
r 0.644 1 2 cbr 500 ------- 0 1.0 3.0 26 53
+ 0.644 2 3 cbr 500 ------- 0 1.0 3.0 26 53
d 0.644 2 3 cbr 500 ------- 0 1.0 3.0 26 53
r 0.644 2 3 cbr 500 ------- 0 1.0 3.0 14 29
+ 0.645 0 2 cbr 500 ------- 2 0.0 3.0 29 58
- 0.645 0 2 cbr 500 ------- 2 0.0 3.0 29 58
+ 0.645 1 2 cbr 500 ------- 0 1.0 3.0 29 59
- 0.645 1 2 cbr 500 ------- 0 1.0 3.0 29 59
- 0.646 2 3 cbr 500 ------- 0 1.0 3.0 16 33
r 0.648 2 3 cbr 500 ------- 2 0.0 3.0 15 30
r 0.649 0 2 cbr 500 ------- 2 0.0 3.0 27 54
+ 0.649 2 3 cbr 500 ------- 2 0.0 3.0 27 54
d 0.649 2 3 cbr 500 ------- 2 0.0 3.0 27 54
r 0.649 1 2 cbr 500 ------- 0 1.0 3.0 27 55
+ 0.649 2 3 cbr 500 ------- 0 1.0 3.0 27 55
+ 0.65 0 2 cbr 500 ------- 2 0.0 3.0 30 60
- 0.65 0 2 cbr 500 ------- 2 0.0 3.0 30 60
+ 0.65 1 2 cbr 500 ------- 0 1.0 3.0 30 61
- 0.65 1 2 cbr 500 ------- 0 1.0 3.0 30 61
- 0.65 2 3 cbr 500 ------- 2 0.0 3.0 17 34
r 0.652 2 3 cbr 500 ------- 0 1.0 3.0 15 31
r 0.654 0 2 cbr 500 ------- 2 0.0 3.0 28 56
+ 0.654 2 3 cbr 500 ------- 2 0.0 3.0 28 56
r 0.654 1 2 cbr 500 ------- 0 1.0 3.0 28 57
+ 0.654 2 3 cbr 500 ------- 0 1.0 3.0 28 57
d 0.654 2 3 cbr 500 ------- 0 1.0 3.0 28 57
- 0.654 2 3 cbr 500 ------- 0 1.0 3.0 17 35
+ 0.655 0 2 cbr 500 ------- 2 0.0 3.0 31 62
- 0.655 0 2 cbr 500 ------- 2 0.0 3.0 31 62
+ 0.655 1 2 cbr 500 ------- 0 1.0 3.0 31 63
- 0.655 1 2 cbr 500 ------- 0 1.0 3.0 31 63
r 0.656 2 3 cbr 500 ------- 2 0.0 3.0 16 32
- 0.658 2 3 cbr 500 ------- 2 0.0 3.0 18 36
r 0.659 0 2 cbr 500 ------- 2 0.0 3.0 29 58
+ 0.659 2 3 cbr 500 ------- 2 0.0 3.0 29 58
r 0.659 1 2 cbr 500 ------- 0 1.0 3.0 29 59
+ 0.659 2 3 cbr 500 ------- 0 1.0 3.0 29 59
r 0.66 2 3 cbr 500 ------- 0 1.0 3.0 16 33
+ 0.66 0 2 cbr 500 ------- 2 0.0 3.0 32 64
- 0.66 0 2 cbr 500 ------- 2 0.0 3.0 32 64
+ 0.66 1 2 cbr 500 ------- 0 1.0 3.0 32 65
- 0.66 1 2 cbr 500 ------- 0 1.0 3.0 32 65
- 0.662 2 3 cbr 500 ------- 0 1.0 3.0 18 37
r 0.664 0 2 cbr 500 ------- 2 0.0 3.0 30 60
+ 0.664 2 3 cbr 500 ------- 2 0.0 3.0 30 60
d 0.664 2 3 cbr 500 ------- 2 0.0 3.0 30 60
r 0.664 1 2 cbr 500 ------- 0 1.0 3.0 30 61
+ 0.664 2 3 cbr 500 ------- 0 1.0 3.0 30 61
r 0.664 2 3 cbr 500 ------- 2 0.0 3.0 17 34
+ 0.665 0 2 cbr 500 ------- 2 0.0 3.0 33 66
- 0.665 0 2 cbr 500 ------- 2 0.0 3.0 33 66
+ 0.665 1 2 cbr 500 ------- 0 1.0 3.0 33 67
- 0.665 1 2 cbr 500 ------- 0 1.0 3.0 33 67
- 0.666 2 3 cbr 500 ------- 2 0.0 3.0 19 38
r 0.668 2 3 cbr 500 ------- 0 1.0 3.0 17 35
r 0.669 0 2 cbr 500 ------- 2 0.0 3.0 31 62
+ 0.669 2 3 cbr 500 ------- 2 0.0 3.0 31 62
r 0.669 1 2 cbr 500 ------- 0 1.0 3.0 31 63
+ 0.669 2 3 cbr 500 ------- 0 1.0 3.0 31 63
d 0.669 2 3 cbr 500 ------- 0 1.0 3.0 31 63
+ 0.67 0 2 cbr 500 ------- 2 0.0 3.0 34 68
- 0.67 0 2 cbr 500 ------- 2 0.0 3.0 34 68
+ 0.67 1 2 cbr 500 ------- 0 1.0 3.0 34 69
- 0.67 1 2 cbr 500 ------- 0 1.0 3.0 34 69
- 0.67 2 3 cbr 500 ------- 0 1.0 3.0 19 39
r 0.672 2 3 cbr 500 ------- 2 0.0 3.0 18 36
r 0.674 0 2 cbr 500 ------- 2 0.0 3.0 32 64
+ 0.674 2 3 cbr 500 ------- 2 0.0 3.0 32 64
d 0.674 2 3 cbr 500 ------- 2 0.0 3.0 32 64
r 0.674 1 2 cbr 500 ------- 0 1.0 3.0 32 65
+ 0.674 2 3 cbr 500 ------- 0 1.0 3.0 32 65
- 0.674 2 3 cbr 500 ------- 2 0.0 3.0 20 40
+ 0.675 0 2 cbr 500 ------- 2 0.0 3.0 35 70
- 0.675 0 2 cbr 500 ------- 2 0.0 3.0 35 70
+ 0.675 1 2 cbr 500 ------- 0 1.0 3.0 35 71
- 0.675 1 2 cbr 500 ------- 0 1.0 3.0 35 71
r 0.676 2 3 cbr 500 ------- 0 1.0 3.0 18 37
- 0.678 2 3 cbr 500 ------- 0 1.0 3.0 20 41
r 0.679 0 2 cbr 500 ------- 2 0.0 3.0 33 66
+ 0.679 2 3 cbr 500 ------- 2 0.0 3.0 33 66
r 0.679 1 2 cbr 500 ------- 0 1.0 3.0 33 67
+ 0.679 2 3 cbr 500 ------- 0 1.0 3.0 33 67
r 0.68 2 3 cbr 500 ------- 2 0.0 3.0 19 38
+ 0.68 0 2 cbr 500 ------- 2 0.0 3.0 36 72
- 0.68 0 2 cbr 500 ------- 2 0.0 3.0 36 72
+ 0.68 1 2 cbr 500 ------- 0 1.0 3.0 36 73
- 0.68 1 2 cbr 500 ------- 0 1.0 3.0 36 73
- 0.682 2 3 cbr 500 ------- 2 0.0 3.0 21 42
r 0.684 0 2 cbr 500 ------- 2 0.0 3.0 34 68
+ 0.684 2 3 cbr 500 ------- 2 0.0 3.0 34 68
r 0.684 1 2 cbr 500 ------- 0 1.0 3.0 34 69
+ 0.684 2 3 cbr 500 ------- 0 1.0 3.0 34 69
d 0.684 2 3 cbr 500 ------- 0 1.0 3.0 34 69
r 0.684 2 3 cbr 500 ------- 0 1.0 3.0 19 39
+ 0.685 0 2 cbr 500 ------- 2 0.0 3.0 37 74
- 0.685 0 2 cbr 500 ------- 2 0.0 3.0 37 74
+ 0.685 1 2 cbr 500 ------- 0 1.0 3.0 37 75
- 0.685 1 2 cbr 500 ------- 0 1.0 3.0 37 75
- 0.686 2 3 cbr 500 ------- 0 1.0 3.0 21 43
r 0.688 2 3 cbr 500 ------- 2 0.0 3.0 20 40
r 0.689 0 2 cbr 500 ------- 2 0.0 3.0 35 70
+ 0.689 2 3 cbr 500 ------- 2 0.0 3.0 35 70
d 0.689 2 3 cbr 500 ------- 2 0.0 3.0 35 70
r 0.689 1 2 cbr 500 ------- 0 1.0 3.0 35 71
+ 0.689 2 3 cbr 500 ------- 0 1.0 3.0 35 71
+ 0.69 0 2 cbr 500 ------- 2 0.0 3.0 38 76
- 0.69 0 2 cbr 500 ------- 2 0.0 3.0 38 76
+ 0.69 1 2 cbr 500 ------- 0 1.0 3.0 38 77
- 0.69 1 2 cbr 500 ------- 0 1.0 3.0 38 77
- 0.69 2 3 cbr 500 ------- 2 0.0 3.0 22 44
r 0.692 2 3 cbr 500 ------- 0 1.0 3.0 20 41
r 0.694 0 2 cbr 500 ------- 2 0.0 3.0 36 72
+ 0.694 2 3 cbr 500 ------- 2 0.0 3.0 36 72
r 0.694 1 2 cbr 500 ------- 0 1.0 3.0 36 73
+ 0.694 2 3 cbr 500 ------- 0 1.0 3.0 36 73
d 0.694 2 3 cbr 500 ------- 0 1.0 3.0 36 73
- 0.694 2 3 cbr 500 ------- 0 1.0 3.0 22 45
+ 0.695 0 2 cbr 500 ------- 2 0.0 3.0 39 78
- 0.695 0 2 cbr 500 ------- 2 0.0 3.0 39 78
+ 0.695 1 2 cbr 500 ------- 0 1.0 3.0 39 79
- 0.695 1 2 cbr 500 ------- 0 1.0 3.0 39 79
r 0.696 2 3 cbr 500 ------- 2 0.0 3.0 21 42
- 0.698 2 3 cbr 500 ------- 2 0.0 3.0 23 46
r 0.699 0 2 cbr 500 ------- 2 0.0 3.0 37 74
+ 0.699 2 3 cbr 500 ------- 2 0.0 3.0 37 74
r 0.699 1 2 cbr 500 ------- 0 1.0 3.0 37 75
+ 0.699 2 3 cbr 500 ------- 0 1.0 3.0 37 75
r 0.7 2 3 cbr 500 ------- 0 1.0 3.0 21 43
+ 0.7 0 2 cbr 500 ------- 2 0.0 3.0 40 80
- 0.7 0 2 cbr 500 ------- 2 0.0 3.0 40 80
+ 0.7 1 2 cbr 500 ------- 0 1.0 3.0 40 81
- 0.7 1 2 cbr 500 ------- 0 1.0 3.0 40 81
- 0.702 2 3 cbr 500 ------- 0 1.0 3.0 23 47
r 0.704 0 2 cbr 500 ------- 2 0.0 3.0 38 76
+ 0.704 2 3 cbr 500 ------- 2 0.0 3.0 38 76
d 0.704 2 3 cbr 500 ------- 2 0.0 3.0 38 76
r 0.704 1 2 cbr 500 ------- 0 1.0 3.0 38 77
+ 0.704 2 3 cbr 500 ------- 0 1.0 3.0 38 77
r 0.704 2 3 cbr 500 ------- 2 0.0 3.0 22 44
+ 0.705 0 2 cbr 500 ------- 2 0.0 3.0 41 82
- 0.705 0 2 cbr 500 ------- 2 0.0 3.0 41 82
+ 0.705 1 2 cbr 500 ------- 0 1.0 3.0 41 83
- 0.705 1 2 cbr 500 ------- 0 1.0 3.0 41 83
- 0.706 2 3 cbr 500 ------- 2 0.0 3.0 24 48
r 0.708 2 3 cbr 500 ------- 0 1.0 3.0 22 45
r 0.709 0 2 cbr 500 ------- 2 0.0 3.0 39 78
+ 0.709 2 3 cbr 500 ------- 2 0.0 3.0 39 78
r 0.709 1 2 cbr 500 ------- 0 1.0 3.0 39 79
+ 0.709 2 3 cbr 500 ------- 0 1.0 3.0 39 79
d 0.709 2 3 cbr 500 ------- 0 1.0 3.0 39 79
+ 0.71 0 2 cbr 500 ------- 2 0.0 3.0 42 84
- 0.71 0 2 cbr 500 ------- 2 0.0 3.0 42 84
+ 0.71 1 2 cbr 500 ------- 0 1.0 3.0 42 85
- 0.71 1 2 cbr 500 ------- 0 1.0 3.0 42 85
- 0.71 2 3 cbr 500 ------- 0 1.0 3.0 24 49
r 0.712 2 3 cbr 500 ------- 2 0.0 3.0 23 46
r 0.714 0 2 cbr 500 ------- 2 0.0 3.0 40 80
+ 0.714 2 3 cbr 500 ------- 2 0.0 3.0 40 80
d 0.714 2 3 cbr 500 ------- 2 0.0 3.0 40 80
r 0.714 1 2 cbr 500 ------- 0 1.0 3.0 40 81
+ 0.714 2 3 cbr 500 ------- 0 1.0 3.0 40 81
- 0.714 2 3 cbr 500 ------- 2 0.0 3.0 25 50
+ 0.715 0 2 cbr 500 ------- 2 0.0 3.0 43 86
- 0.715 0 2 cbr 500 ------- 2 0.0 3.0 43 86
+ 0.715 1 2 cbr 500 ------- 0 1.0 3.0 43 87
- 0.715 1 2 cbr 500 ------- 0 1.0 3.0 43 87
r 0.716 2 3 cbr 500 ------- 0 1.0 3.0 23 47
- 0.718 2 3 cbr 500 ------- 0 1.0 3.0 25 51
r 0.719 0 2 cbr 500 ------- 2 0.0 3.0 41 82
+ 0.719 2 3 cbr 500 ------- 2 0.0 3.0 41 82
r 0.719 1 2 cbr 500 ------- 0 1.0 3.0 41 83
+ 0.719 2 3 cbr 500 ------- 0 1.0 3.0 41 83
r 0.72 2 3 cbr 500 ------- 2 0.0 3.0 24 48
+ 0.72 0 2 cbr 500 ------- 2 0.0 3.0 44 88
- 0.72 0 2 cbr 500 ------- 2 0.0 3.0 44 88
+ 0.72 1 2 cbr 500 ------- 0 1.0 3.0 44 89
- 0.72 1 2 cbr 500 ------- 0 1.0 3.0 44 89
- 0.722 2 3 cbr 500 ------- 2 0.0 3.0 26 52
r 0.724 0 2 cbr 500 ------- 2 0.0 3.0 42 84
+ 0.724 2 3 cbr 500 ------- 2 0.0 3.0 42 84
r 0.724 1 2 cbr 500 ------- 0 1.0 3.0 42 85
+ 0.724 2 3 cbr 500 ------- 0 1.0 3.0 42 85
d 0.724 2 3 cbr 500 ------- 0 1.0 3.0 42 85
r 0.724 2 3 cbr 500 ------- 0 1.0 3.0 24 49
+ 0.725 0 2 cbr 500 ------- 2 0.0 3.0 45 90
- 0.725 0 2 cbr 500 ------- 2 0.0 3.0 45 90
+ 0.725 1 2 cbr 500 ------- 0 1.0 3.0 45 91
- 0.725 1 2 cbr 500 ------- 0 1.0 3.0 45 91
- 0.726 2 3 cbr 500 ------- 0 1.0 3.0 27 55
r 0.728 2 3 cbr 500 ------- 2 0.0 3.0 25 50
r 0.729 0 2 cbr 500 ------- 2 0.0 3.0 43 86
+ 0.729 2 3 cbr 500 ------- 2 0.0 3.0 43 86
d 0.729 2 3 cbr 500 ------- 2 0.0 3.0 43 86
r 0.729 1 2 cbr 500 ------- 0 1.0 3.0 43 87
+ 0.729 2 3 cbr 500 ------- 0 1.0 3.0 43 87
+ 0.73 0 2 cbr 500 ------- 2 0.0 3.0 46 92
- 0.73 0 2 cbr 500 ------- 2 0.0 3.0 46 92
+ 0.73 1 2 cbr 500 ------- 0 1.0 3.0 46 93
- 0.73 1 2 cbr 500 ------- 0 1.0 3.0 46 93
- 0.73 2 3 cbr 500 ------- 2 0.0 3.0 28 56
r 0.732 2 3 cbr 500 ------- 0 1.0 3.0 25 51
r 0.734 0 2 cbr 500 ------- 2 0.0 3.0 44 88
+ 0.734 2 3 cbr 500 ------- 2 0.0 3.0 44 88
r 0.734 1 2 cbr 500 ------- 0 1.0 3.0 44 89
+ 0.734 2 3 cbr 500 ------- 0 1.0 3.0 44 89
d 0.734 2 3 cbr 500 ------- 0 1.0 3.0 44 89
- 0.734 2 3 cbr 500 ------- 0 1.0 3.0 29 59
+ 0.735 0 2 cbr 500 ------- 2 0.0 3.0 47 94
- 0.735 0 2 cbr 500 ------- 2 0.0 3.0 47 94
+ 0.735 1 2 cbr 500 ------- 0 1.0 3.0 47 95
- 0.735 1 2 cbr 500 ------- 0 1.0 3.0 47 95
r 0.736 2 3 cbr 500 ------- 2 0.0 3.0 26 52
- 0.738 2 3 cbr 500 ------- 2 0.0 3.0 29 58
r 0.739 0 2 cbr 500 ------- 2 0.0 3.0 45 90
+ 0.739 2 3 cbr 500 ------- 2 0.0 3.0 45 90
r 0.739 1 2 cbr 500 ------- 0 1.0 3.0 45 91
+ 0.739 2 3 cbr 500 ------- 0 1.0 3.0 45 91
r 0.74 2 3 cbr 500 ------- 0 1.0 3.0 27 55
+ 0.74 0 2 cbr 500 ------- 2 0.0 3.0 48 96
- 0.74 0 2 cbr 500 ------- 2 0.0 3.0 48 96
+ 0.74 1 2 cbr 500 ------- 0 1.0 3.0 48 97
- 0.74 1 2 cbr 500 ------- 0 1.0 3.0 48 97
- 0.742 2 3 cbr 500 ------- 0 1.0 3.0 30 61
r 0.744 0 2 cbr 500 ------- 2 0.0 3.0 46 92
+ 0.744 2 3 cbr 500 ------- 2 0.0 3.0 46 92
d 0.744 2 3 cbr 500 ------- 2 0.0 3.0 46 92
r 0.744 1 2 cbr 500 ------- 0 1.0 3.0 46 93
+ 0.744 2 3 cbr 500 ------- 0 1.0 3.0 46 93
r 0.744 2 3 cbr 500 ------- 2 0.0 3.0 28 56
+ 0.745 0 2 cbr 500 ------- 2 0.0 3.0 49 98
- 0.745 0 2 cbr 500 ------- 2 0.0 3.0 49 98
+ 0.745 1 2 cbr 500 ------- 0 1.0 3.0 49 99
- 0.745 1 2 cbr 500 ------- 0 1.0 3.0 49 99
- 0.746 2 3 cbr 500 ------- 2 0.0 3.0 31 62
r 0.748 2 3 cbr 500 ------- 0 1.0 3.0 29 59
r 0.749 0 2 cbr 500 ------- 2 0.0 3.0 47 94
+ 0.749 2 3 cbr 500 ------- 2 0.0 3.0 47 94
r 0.749 1 2 cbr 500 ------- 0 1.0 3.0 47 95
+ 0.749 2 3 cbr 500 ------- 0 1.0 3.0 47 95
d 0.749 2 3 cbr 500 ------- 0 1.0 3.0 47 95
+ 0.75 0 2 cbr 500 ------- 2 0.0 3.0 50 100
- 0.75 0 2 cbr 500 ------- 2 0.0 3.0 50 100
+ 0.75 1 2 cbr 500 ------- 0 1.0 3.0 50 101
- 0.75 1 2 cbr 500 ------- 0 1.0 3.0 50 101
- 0.75 2 3 cbr 500 ------- 0 1.0 3.0 32 65
r 0.752 2 3 cbr 500 ------- 2 0.0 3.0 29 58
r 0.754 0 2 cbr 500 ------- 2 0.0 3.0 48 96
+ 0.754 2 3 cbr 500 ------- 2 0.0 3.0 48 96
d 0.754 2 3 cbr 500 ------- 2 0.0 3.0 48 96
r 0.754 1 2 cbr 500 ------- 0 1.0 3.0 48 97
+ 0.754 2 3 cbr 500 ------- 0 1.0 3.0 48 97
- 0.754 2 3 cbr 500 ------- 2 0.0 3.0 33 66
+ 0.755 0 2 cbr 500 ------- 2 0.0 3.0 51 102
- 0.755 0 2 cbr 500 ------- 2 0.0 3.0 51 102
+ 0.755 1 2 cbr 500 ------- 0 1.0 3.0 51 103
- 0.755 1 2 cbr 500 ------- 0 1.0 3.0 51 103
r 0.756 2 3 cbr 500 ------- 0 1.0 3.0 30 61
- 0.758 2 3 cbr 500 ------- 0 1.0 3.0 33 67
r 0.759 0 2 cbr 500 ------- 2 0.0 3.0 49 98
+ 0.759 2 3 cbr 500 ------- 2 0.0 3.0 49 98
r 0.759 1 2 cbr 500 ------- 0 1.0 3.0 49 99
+ 0.759 2 3 cbr 500 ------- 0 1.0 3.0 49 99
r 0.76 2 3 cbr 500 ------- 2 0.0 3.0 31 62
+ 0.76 0 2 cbr 500 ------- 2 0.0 3.0 52 104
- 0.76 0 2 cbr 500 ------- 2 0.0 3.0 52 104
+ 0.76 1 2 cbr 500 ------- 0 1.0 3.0 52 105
- 0.76 1 2 cbr 500 ------- 0 1.0 3.0 52 105
- 0.762 2 3 cbr 500 ------- 2 0.0 3.0 34 68
r 0.764 0 2 cbr 500 ------- 2 0.0 3.0 50 100
+ 0.764 2 3 cbr 500 ------- 2 0.0 3.0 50 100
r 0.764 1 2 cbr 500 ------- 0 1.0 3.0 50 101
+ 0.764 2 3 cbr 500 ------- 0 1.0 3.0 50 101
d 0.764 2 3 cbr 500 ------- 0 1.0 3.0 50 101
r 0.764 2 3 cbr 500 ------- 0 1.0 3.0 32 65
+ 0.765 0 2 cbr 500 ------- 2 0.0 3.0 53 106
- 0.765 0 2 cbr 500 ------- 2 0.0 3.0 53 106
+ 0.765 1 2 cbr 500 ------- 0 1.0 3.0 53 107
- 0.765 1 2 cbr 500 ------- 0 1.0 3.0 53 107
- 0.766 2 3 cbr 500 ------- 0 1.0 3.0 35 71
r 0.768 2 3 cbr 500 ------- 2 0.0 3.0 33 66
r 0.769 0 2 cbr 500 ------- 2 0.0 3.0 51 102
+ 0.769 2 3 cbr 500 ------- 2 0.0 3.0 51 102
d 0.769 2 3 cbr 500 ------- 2 0.0 3.0 51 102
r 0.769 1 2 cbr 500 ------- 0 1.0 3.0 51 103
+ 0.769 2 3 cbr 500 ------- 0 1.0 3.0 51 103
+ 0.77 0 2 cbr 500 ------- 2 0.0 3.0 54 108
- 0.77 0 2 cbr 500 ------- 2 0.0 3.0 54 108
+ 0.77 1 2 cbr 500 ------- 0 1.0 3.0 54 109
- 0.77 1 2 cbr 500 ------- 0 1.0 3.0 54 109
- 0.77 2 3 cbr 500 ------- 2 0.0 3.0 36 72
r 0.772 2 3 cbr 500 ------- 0 1.0 3.0 33 67
r 0.774 0 2 cbr 500 ------- 2 0.0 3.0 52 104
+ 0.774 2 3 cbr 500 ------- 2 0.0 3.0 52 104
r 0.774 1 2 cbr 500 ------- 0 1.0 3.0 52 105
+ 0.774 2 3 cbr 500 ------- 0 1.0 3.0 52 105
d 0.774 2 3 cbr 500 ------- 0 1.0 3.0 52 105
- 0.774 2 3 cbr 500 ------- 0 1.0 3.0 37 75
+ 0.775 0 2 cbr 500 ------- 2 0.0 3.0 55 110
- 0.775 0 2 cbr 500 ------- 2 0.0 3.0 55 110
+ 0.775 1 2 cbr 500 ------- 0 1.0 3.0 55 111
- 0.775 1 2 cbr 500 ------- 0 1.0 3.0 55 111
r 0.776 2 3 cbr 500 ------- 2 0.0 3.0 34 68
- 0.778 2 3 cbr 500 ------- 2 0.0 3.0 37 74
r 0.779 0 2 cbr 500 ------- 2 0.0 3.0 53 106
+ 0.779 2 3 cbr 500 ------- 2 0.0 3.0 53 106
r 0.779 1 2 cbr 500 ------- 0 1.0 3.0 53 107
+ 0.779 2 3 cbr 500 ------- 0 1.0 3.0 53 107
r 0.78 2 3 cbr 500 ------- 0 1.0 3.0 35 71
+ 0.78 0 2 cbr 500 ------- 2 0.0 3.0 56 112
- 0.78 0 2 cbr 500 ------- 2 0.0 3.0 56 112
+ 0.78 1 2 cbr 500 ------- 0 1.0 3.0 56 113
- 0.78 1 2 cbr 500 ------- 0 1.0 3.0 56 113
- 0.782 2 3 cbr 500 ------- 0 1.0 3.0 38 77
r 0.784 0 2 cbr 500 ------- 2 0.0 3.0 54 108
+ 0.784 2 3 cbr 500 ------- 2 0.0 3.0 54 108
d 0.784 2 3 cbr 500 ------- 2 0.0 3.0 54 108
r 0.784 1 2 cbr 500 ------- 0 1.0 3.0 54 109
+ 0.784 2 3 cbr 500 ------- 0 1.0 3.0 54 109
r 0.784 2 3 cbr 500 ------- 2 0.0 3.0 36 72
+ 0.785 0 2 cbr 500 ------- 2 0.0 3.0 57 114
- 0.785 0 2 cbr 500 ------- 2 0.0 3.0 57 114
+ 0.785 1 2 cbr 500 ------- 0 1.0 3.0 57 115
- 0.785 1 2 cbr 500 ------- 0 1.0 3.0 57 115
- 0.786 2 3 cbr 500 ------- 2 0.0 3.0 39 78
r 0.788 2 3 cbr 500 ------- 0 1.0 3.0 37 75
r 0.789 0 2 cbr 500 ------- 2 0.0 3.0 55 110
+ 0.789 2 3 cbr 500 ------- 2 0.0 3.0 55 110
r 0.789 1 2 cbr 500 ------- 0 1.0 3.0 55 111
+ 0.789 2 3 cbr 500 ------- 0 1.0 3.0 55 111
d 0.789 2 3 cbr 500 ------- 0 1.0 3.0 55 111
+ 0.79 0 2 cbr 500 ------- 2 0.0 3.0 58 116
- 0.79 0 2 cbr 500 ------- 2 0.0 3.0 58 116
+ 0.79 1 2 cbr 500 ------- 0 1.0 3.0 58 117
- 0.79 1 2 cbr 500 ------- 0 1.0 3.0 58 117
- 0.79 2 3 cbr 500 ------- 0 1.0 3.0 40 81
r 0.792 2 3 cbr 500 ------- 2 0.0 3.0 37 74
r 0.794 0 2 cbr 500 ------- 2 0.0 3.0 56 112
+ 0.794 2 3 cbr 500 ------- 2 0.0 3.0 56 112
d 0.794 2 3 cbr 500 ------- 2 0.0 3.0 56 112
r 0.794 1 2 cbr 500 ------- 0 1.0 3.0 56 113
+ 0.794 2 3 cbr 500 ------- 0 1.0 3.0 56 113
- 0.794 2 3 cbr 500 ------- 2 0.0 3.0 41 82
+ 0.795 0 2 cbr 500 ------- 2 0.0 3.0 59 118
- 0.795 0 2 cbr 500 ------- 2 0.0 3.0 59 118
+ 0.795 1 2 cbr 500 ------- 0 1.0 3.0 59 119
- 0.795 1 2 cbr 500 ------- 0 1.0 3.0 59 119
r 0.796 2 3 cbr 500 ------- 0 1.0 3.0 38 77
- 0.798 2 3 cbr 500 ------- 0 1.0 3.0 41 83
r 0.799 0 2 cbr 500 ------- 2 0.0 3.0 57 114
+ 0.799 2 3 cbr 500 ------- 2 0.0 3.0 57 114
r 0.799 1 2 cbr 500 ------- 0 1.0 3.0 57 115
+ 0.799 2 3 cbr 500 ------- 0 1.0 3.0 57 115
r 0.8 2 3 cbr 500 ------- 2 0.0 3.0 39 78
+ 0.8 0 2 cbr 500 ------- 2 0.0 3.0 60 120
- 0.8 0 2 cbr 500 ------- 2 0.0 3.0 60 120
+ 0.8 1 2 cbr 500 ------- 0 1.0 3.0 60 121
- 0.8 1 2 cbr 500 ------- 0 1.0 3.0 60 121
- 0.802 2 3 cbr 500 ------- 2 0.0 3.0 42 84
r 0.804 0 2 cbr 500 ------- 2 0.0 3.0 58 116
+ 0.804 2 3 cbr 500 ------- 2 0.0 3.0 58 116
r 0.804 1 2 cbr 500 ------- 0 1.0 3.0 58 117
+ 0.804 2 3 cbr 500 ------- 0 1.0 3.0 58 117
d 0.804 2 3 cbr 500 ------- 0 1.0 3.0 58 117
r 0.804 2 3 cbr 500 ------- 0 1.0 3.0 40 81
+ 0.805 0 2 cbr 500 ------- 2 0.0 3.0 61 122
- 0.805 0 2 cbr 500 ------- 2 0.0 3.0 61 122
+ 0.805 1 2 cbr 500 ------- 0 1.0 3.0 61 123
- 0.805 1 2 cbr 500 ------- 0 1.0 3.0 61 123
- 0.806 2 3 cbr 500 ------- 0 1.0 3.0 43 87
r 0.808 2 3 cbr 500 ------- 2 0.0 3.0 41 82
r 0.809 0 2 cbr 500 ------- 2 0.0 3.0 59 118
+ 0.809 2 3 cbr 500 ------- 2 0.0 3.0 59 118
d 0.809 2 3 cbr 500 ------- 2 0.0 3.0 59 118
r 0.809 1 2 cbr 500 ------- 0 1.0 3.0 59 119
+ 0.809 2 3 cbr 500 ------- 0 1.0 3.0 59 119
+ 0.81 0 2 cbr 500 ------- 2 0.0 3.0 62 124
- 0.81 0 2 cbr 500 ------- 2 0.0 3.0 62 124
+ 0.81 1 2 cbr 500 ------- 0 1.0 3.0 62 125
- 0.81 1 2 cbr 500 ------- 0 1.0 3.0 62 125
- 0.81 2 3 cbr 500 ------- 2 0.0 3.0 44 88
r 0.812 2 3 cbr 500 ------- 0 1.0 3.0 41 83
r 0.814 0 2 cbr 500 ------- 2 0.0 3.0 60 120
+ 0.814 2 3 cbr 500 ------- 2 0.0 3.0 60 120
r 0.814 1 2 cbr 500 ------- 0 1.0 3.0 60 121
+ 0.814 2 3 cbr 500 ------- 0 1.0 3.0 60 121
d 0.814 2 3 cbr 500 ------- 0 1.0 3.0 60 121
- 0.814 2 3 cbr 500 ------- 0 1.0 3.0 45 91
+ 0.815 0 2 cbr 500 ------- 2 0.0 3.0 63 126
- 0.815 0 2 cbr 500 ------- 2 0.0 3.0 63 126
+ 0.815 1 2 cbr 500 ------- 0 1.0 3.0 63 127
- 0.815 1 2 cbr 500 ------- 0 1.0 3.0 63 127
r 0.816 2 3 cbr 500 ------- 2 0.0 3.0 42 84
- 0.818 2 3 cbr 500 ------- 2 0.0 3.0 45 90
r 0.819 0 2 cbr 500 ------- 2 0.0 3.0 61 122
+ 0.819 2 3 cbr 500 ------- 2 0.0 3.0 61 122
r 0.819 1 2 cbr 500 ------- 0 1.0 3.0 61 123
+ 0.819 2 3 cbr 500 ------- 0 1.0 3.0 61 123
r 0.82 2 3 cbr 500 ------- 0 1.0 3.0 43 87
+ 0.82 0 2 cbr 500 ------- 2 0.0 3.0 64 128
- 0.82 0 2 cbr 500 ------- 2 0.0 3.0 64 128
+ 0.82 1 2 cbr 500 ------- 0 1.0 3.0 64 129
- 0.82 1 2 cbr 500 ------- 0 1.0 3.0 64 129
- 0.822 2 3 cbr 500 ------- 0 1.0 3.0 46 93